<?xml version="1.0"?>
<VTKFile type="UnstructuredGrid"  version="0.1"  >
<UnstructuredGrid>
<Piece  NumberOfPoints="10829" NumberOfCells="21066">
<Points>
<DataArray  type="Float64"  NumberOfComponents="3"  format="ascii">0.5 0.5 0  0.45 0.5 0  0.4 0.5 0  -0.5 0.5 0  -0.5 -0.5 0  0.4 -0.5 0  0.45 -0.5 0  0.5 -0.5 0  0.5 0.45 0  0.5 -0.45 0  -20.5 -1 0  26.5 -1 0  26.5 12.5 0  -20.5 12.5 0  -3 -1 0  15 -1 0  15 4 0  -3 4 0  0.4900000000001019 0.5 0  0.4800000000002017 0.5 0  0.4700000000001887 0.5 0  0.460000000000115 0.5 0  0.4400000000000369 0.5 0  0.4299999999999848 0.5 0  0.4199999999999284 0.5 0  0.4099999999999415 0.5 0  0.3899968950289362 0.5 0  0.3795490694965228 0.5 0  0.3686367537448326 0.5 0  0.3572392934523136 0.5 0  0.345335123984432 0.5 0  0.3329017146844528 0.5 0  0.3199155393324351 0.5 0  0.3063520166331928 0.5 0  0.2921854883318578 0.5 0  0.2773891442334518 0.5 0  0.2619349739311215 0.5 0  0.2457937412291746 0.5 0  0.2289349006723994 0.5 0  0.2113265405588577 0.5 0  0.1929353467624371 0.5 0  0.1737265114987298 0.5 0  0.1536636869281483 0.5 0  0.1327089047115138 0.5 0  0.1108225072918342 0.5 0  0.0879630796216499 0.5 0  0.0640873617438385 0.5 0  0.03915017221582984 0.5 0  0.01310431918423327 0.5 0  -0.01409949325192744 0.5 0  -0.04251272589921934 0.5 0  -0.07218916565194611 0.5 0  -0.1031849709803533 0.5 0  -0.1355588001426639 0.5 0  -0.1693719051818201 0.5 0  -0.2046882770432978 0.5 0  -0.2415747618348081 0.5 0  -0.2801011534394048 0.5 0  -0.3203403603960724 0.5 0  -0.3623685303680776 0.5 0  -0.4062651988734284 0.5 0  -0.4521134319164796 0.5 0  -0.5 0.4500000000001387 0  -0.5 0.4000000000002774 0  -0.5 0.3500000000004161 0  -0.5 0.3000000000005548 0  -0.5 0.2500000000006935 0  -0.5 0.2000000000008322 0  -0.5 0.1500000000009709 0  -0.5 0.1000000000011096 0  -0.5 0.05000000000124821 0  -0.5 1.376121439022882e-12 0  -0.5 -0.04999999999875171 0  -0.5 -0.09999999999889042 0  -0.5 -0.1499999999990291 0  -0.5 -0.1999999999991677 0  -0.5 -0.2499999999993064 0  -0.5 -0.2999999999994452 0  -0.5 -0.349999999999584 0  -0.5 -0.3999999999997227 0  -0.5 -0.4499999999998613 0  -0.4521134319167869 -0.5 0  -0.4062651988739792 -0.5 0  -0.3623685303688972 -0.5 0  -0.3203403603971618 -0.5 0  -0.2801011534407372 -0.5 0  -0.2415747618363615 -0.5 0  -0.2046882770450509 -0.5 0  -0.169371905183754 -0.5 0  -0.135558800144759 -0.5 0  -0.1031849709825932 -0.5 0  -0.07218916565431294 -0.5 0  -0.04251272590161542 -0.5 0  -0.01409949325411686 -0.5 0  0.01310431918223676 -0.5 0  0.03915017221401362 -0.5 0  0.06408736174219054 -0.5 0  0.08796307962015915 -0.5 0  0.1108225072904911 -0.5 0  0.1327089047103082 -0.5 0  0.1536636869270703 -0.5 0  0.173726511497771 -0.5 0  0.1929353467615897 -0.5 0  0.2113265405581135 -0.5 0  0.2289349006717515 -0.5 0  0.2457937412286159 -0.5 0  0.2619349739306458 -0.5 0  0.2773891442330543 -0.5 0  0.2921854883315296 -0.5 0  0.3063520166329049 -0.5 0  0.3199155393321851 -0.5 0  0.3329017146842371 -0.5 0  0.3453351239842508 -0.5 0  0.3572392934521765 -0.5 0  0.368636753744736 -0.5 0  0.3795490694964596 -0.5 0  0.3899968950289046 -0.5 0  0.4099999999998981 -0.5 0  0.4199999999997984 -0.5 0  0.4299999999998114 -0.5 0  0.439999999999885 -0.5 0  0.4599999999999632 -0.5 0  0.4700000000000152 -0.5 0  0.4800000000000716 -0.5 0  0.4900000000000586 -0.5 0  0.5 -0.4884707679732572 0  0.5 -0.472400337870186 0  0.5 -0.4000000000001097 0  0.5 -0.3500000000002277 0  0.5 -0.3000000000003507 0  0.5 -0.2500000000004929 0  0.5 -0.200000000000635 0  0.5 -0.1500000000007771 0  0.5 -0.1000000000009192 0  0.5 -0.05000000000106131 0  0.5 -1.203370736391207e-12 0  0.5 0.04999999999891819 0  0.5 0.09999999999905301 0  0.5 0.1499999999991975 0  0.5 0.1999999999993202 0  0.5 0.2499999999994647 0  0.5 0.2999999999995948 0  0.5 0.349999999999732 0  0.5 0.399999999999877 0  0.5 0.4724003378700313 0  0.5 0.4884707679732201 0  -18.65455009661209 -1 0  -16.99884561996858 -1 0  -15.5133770683296 -1 0  -14.18064134672181 -1 0  -12.98493474839068 -1 0  -11.91216825313353 -1 0  -10.9497013939054 -1 0  -10.08619332470614 -1 0  -9.311469434120806 -1 0  -8.616400961954245 -1 0  -7.99279805886065 -1 0  -7.433312719890647 -1 0  -6.931352408186671 -1 0  -6.481002637243641 -1 0  -6.076956950830553 -1 0  -5.714454387638698 -1 0  -5.389223561693598 -1 0  -5.097432335337958 -1 0  -4.835642468111352 -1 0  -4.600769232878831 -1 0  -4.390045211346802 -1 0  -4.200987402015734 -1 0  -4.031368124520849 -1 0  -3.879188753621634 -1 0  -3.742656155313359 -1 0  -3.620161525998132 -1 0  -3.510261552559793 -1 0  -3.41166127648917 -1 0  -3.323198872199722 -1 0  -3.243831983476614 -1 0  -3.172625446557262 -1 0  -3.108740207503182 -1 0  -3.051423508934484 -1 0  -2.950000000000079 -1 0  -2.900000000000158 -1 0  -2.850000000000238 -1 0  -2.800000000000317 -1 0  -2.750000000000396 -1 0  -2.700000000000476 -1 0  -2.650000000000555 -1 0  -2.600000000000634 -1 0  -2.550000000000731 -1 0  -2.500000000000841 -1 0  -2.450000000000951 -1 0  -2.400000000001107 -1 0  -2.350000000001279 -1 0  -2.300000000001451 -1 0  -2.250000000001652 -1 0  -2.200000000001854 -1 0  -2.150000000002057 -1 0  -2.100000000002259 -1 0  -2.050000000002462 -1 0  -2.00000000000265 -1 0  -1.950000000002806 -1 0  -1.900000000002963 -1 0  -1.850000000003088 -1 0  -1.800000000003183 -1 0  -1.750000000003278 -1 0  -1.700000000003362 -1 0  -1.650000000003441 -1 0  -1.60000000000352 -1 0  -1.5500000000036 -1 0  -1.500000000003679 -1 0  -1.450000000003758 -1 0  -1.400000000003837 -1 0  -1.350000000003917 -1 0  -1.300000000003996 -1 0  -1.250000000004075 -1 0  -1.200000000004154 -1 0  -1.150000000004234 -1 0  -1.100000000004313 -1 0  -1.050000000004392 -1 0  -1.000000000004471 -1 0  -0.9500000000045503 -1 0  -0.9000000000046295 -1 0  -0.8500000000047341 -1 0  -0.8000000000048439 -1 0  -0.7500000000049543 -1 0  -0.7000000000051259 -1 0  -0.6500000000052983 -1 0  -0.6000000000054757 -1 0  -0.5500000000056779 -1 0  -0.5000000000058806 -1 0  -0.4500000000060833 -1 0  -0.400000000006286 -1 0  -0.3500000000064882 -1 0  -0.3000000000066914 -1 0  -0.2500000000068936 -1 0  -0.2000000000070967 -1 0  -0.1500000000072994 -1 0  -0.1000000000075016 -1 0  -0.05000000000770433 -1 0  -7.907008381380365e-12 -1 0  0.04999999999189031 -1 0  0.09999999999168807 -1 0  0.1499999999914849 -1 0  0.1999999999912827 -1 0  0.24999999999108 -1 0  0.2999999999908769 -1 0  0.3499999999906747 -1 0  0.3999999999904715 -1 0  0.4499999999902693 -1 0  0.4999999999900671 -1 0  0.5499999999898639 -1 0  0.5999999999896612 -1 0  0.6499999999894586 -1 0  0.6999999999892563 -1 0  0.7499999999890541 -1 0  0.799999999988851 -1 0  0.8499999999886483 -1 0  0.899999999988446 -1 0  0.9499999999882429 -1 0  0.9999999999880407 -1 0  1.049999999987838 -1 0  1.099999999987635 -1 0  1.149999999987433 -1 0  1.19999999998723 -1 0  1.249999999987028 -1 0  1.299999999986825 -1 0  1.349999999986622 -1 0  1.39999999998642 -1 0  1.449999999986217 -1 0  1.499999999986014 -1 0  1.549999999985811 -1 0  1.599999999985609 -1 0  1.649999999985406 -1 0  1.699999999985203 -1 0  1.749999999985001 -1 0  1.799999999984798 -1 0  1.849999999984596 -1 0  1.899999999984393 -1 0  1.94999999998419 -1 0  1.999999999983988 -1 0  2.049999999983786 -1 0  2.099999999983583 -1 0  2.14999999998338 -1 0  2.199999999983177 -1 0  2.249999999982975 -1 0  2.299999999982773 -1 0  2.34999999998257 -1 0  2.399999999982366 -1 0  2.449999999982164 -1 0  2.499999999981962 -1 0  2.54999999998176 -1 0  2.599999999981557 -1 0  2.649999999981354 -1 0  2.69999999998115 -1 0  2.749999999980949 -1 0  2.799999999980746 -1 0  2.849999999980543 -1 0  2.899999999980341 -1 0  2.949999999980139 -1 0  2.999999999979936 -1 0  3.049999999979732 -1 0  3.09999999997953 -1 0  3.149999999979328 -1 0  3.199999999979125 -1 0  3.249999999978923 -1 0  3.29999999997872 -1 0  3.349999999978516 -1 0  3.399999999978315 -1 0  3.449999999978112 -1 0  3.499999999977909 -1 0  3.549999999977707 -1 0  3.599999999977504 -1 0  3.649999999977302 -1 0  3.699999999977099 -1 0  3.749999999976897 -1 0  3.799999999976692 -1 0  3.849999999976491 -1 0  3.899999999976289 -1 0  3.949999999976085 -1 0  3.999999999975883 -1 0  4.049999999975681 -1 0  4.099999999975477 -1 0  4.149999999975275 -1 0  4.199999999975073 -1 0  4.249999999974869 -1 0  4.299999999974666 -1 0  4.349999999974465 -1 0  4.399999999974263 -1 0  4.449999999974059 -1 0  4.499999999973857 -1 0  4.549999999973654 -1 0  4.599999999973451 -1 0  4.649999999973249 -1 0  4.699999999973047 -1 0  4.749999999972843 -1 0  4.799999999972642 -1 0  4.849999999972439 -1 0  4.899999999972236 -1 0  4.949999999972032 -1 0  4.999999999971831 -1 0  5.049999999971629 -1 0  5.099999999971425 -1 0  5.149999999971223 -1 0  5.19999999997102 -1 0  5.249999999970816 -1 0  5.299999999970614 -1 0  5.349999999970413 -1 0  5.399999999970209 -1 0  5.449999999970006 -1 0  5.499999999969805 -1 0  5.549999999969602 -1 0  5.599999999969398 -1 0  5.649999999969197 -1 0  5.699999999968995 -1 0  5.749999999968791 -1 0  5.799999999968589 -1 0  5.849999999968386 -1 0  5.899999999968284 -1 0  5.949999999968204 -1 0  5.999999999968125 -1 0  6.049999999968291 -1 0  6.099999999968459 -1 0  6.149999999968651 -1 0  6.19999999996894 -1 0  6.249999999969232 -1 0  6.299999999969524 -1 0  6.349999999969814 -1 0  6.399999999970104 -1 0  6.449999999970396 -1 0  6.499999999970688 -1 0  6.549999999970977 -1 0  6.599999999971269 -1 0  6.649999999971561 -1 0  6.699999999971849 -1 0  6.749999999972141 -1 0  6.799999999972433 -1 0  6.849999999972725 -1 0  6.899999999973014 -1 0  6.949999999973306 -1 0  6.999999999973598 -1 0  7.049999999973886 -1 0  7.09999999997418 -1 0  7.149999999974471 -1 0  7.199999999974763 -1 0  7.249999999975051 -1 0  7.299999999975343 -1 0  7.349999999975635 -1 0  7.399999999975924 -1 0  7.449999999976217 -1 0  7.499999999976508 -1 0  7.5499999999768 -1 0  7.59999999997709 -1 0  7.64999999997738 -1 0  7.699999999977672 -1 0  7.749999999977963 -1 0  7.799999999978255 -1 0  7.849999999978545 -1 0  7.899999999978
[...]
<PointData  Vectors="velocity"> 
<DataArray  type="Float64"  Name="velocity"  NumberOfComponents="3" format="ascii">0.0000000000000000e+00 0.0000000000000000e+00 0.0000000000000000e+00  0.0000000000000000e+00 -2.5741385295987129e-01 0.0000000000000000e+00  0.0000000000000000e+00 -2.8578678641352361e-16 0.0000000000000000e+00  0.0000000000000000e+00 0.0000000000000000e+00 0.0000000000000000e+00  0.0000000000000000e+00 0.0000000000000000e+00 0.0000000000000000e+00  0.0000000000000000e+00 1.0826451704184959e-15 0.0000000000000000e+00  0.0000000000000000e+00 9.7516007721424103e-01 0.0000000000000000e+00  0.0000000000000000e+00 0.0000000000000000e+00 0.0000000000000000e+00  0.0000000000000000e+00 0.0000000000000000e+00 0.0000000000000000e+00  0.0000000000000000e+00 0.0000000000000000e+00 0.0000000000000000e+00  1.0000000000000000e+00 0.0000000000000000e+00 0.0000000000000000e+00  1.0000000000000000e+00 0.0000000000000000e+00 0.0000000000000000e+00  1.0000000000000000e+00 0.0000000000000000e+00 0.0000000000000000e+00  1.0000000000000000e+00 0.0000000000000000e+00 0.0000000000000000e+00  1.0000000000000000e+00 0.0000000000000000e+00 0.0000000000000000e+00  1.0000000000000000e+00 0.0000000000000000e+00 0.0000000000000000e+00  1.0430743192783307e+00 -3.0092948825376793e-02 0.0000000000000000e+00  1.0168558742291800e+00 8.3428333649213995e-02 0.0000000000000000e+00  0.0000000000000000e+00 -9.2668987064714214e-02 0.0000000000000000e+00  0.0000000000000000e+00 -1.6474486589307147e-01 0.0000000000000000e+00  0.0000000000000000e+00 -2.1622763648551463e-01 0.0000000000000000e+00  0.0000000000000000e+00 -2.4711729884123962e-01 0.0000000000000000e+00  0.0000000000000000e+00 -2.4711729884155248e-01 0.0000000000000000e+00  0.0000000000000000e+00 -2.1622763648622922e-01 0.0000000000000000e+00  0.0000000000000000e+00 -1.6474486589387516e-01 0.0000000000000000e+00  0.0000000000000000e+00 -9.2668987065072012e-02 0.0000000000000000e+00  0.0000000000000000e+00 0.0000000000000000e+00 0.0000000000000000e+00  0.0000000000000000e+00 0.0000000000000000e+00 0.0000000000000000e+00  0.0000000000000000e+00 0.0000000000000000e+00 0.0000000000000000e+00  0.0000000000000000e+00 0.0000000000000000e+00 0.0000000000000000e+00  0.0000000000000000e+00 0.0000000000000000e+00 0.0000000000000000e+00  0.0000000000000000e+00 0.0000000000000000e+00 0.0000000000000000e+00  0.0000000000000000e+00 0.0000000000000000e+00 0.0000000000000000e+00  0.0000000000000000e+00 0.0000000000000000e+00 0.0000000000000000e+00  0.0000000000000000e+00 0.0000000000000000e+00 0.0000000000000000e+00  0.0000000000000000e+00 0.0000000000000000e+00 0.0000000000000000e+00  0.0000000000000000e+00 0.0000000000000000e+00 0.0000000000000000e+00  0.0000000000000000e+00 0.0000000000000000e+00 0.0000000000000000e+00  0.0000000000000000e+00 0.0000000000000000e+00 0.0000000000000000e+00  0.0000000000000000e+00 0.0000000000000000e+00 0.0000000000000000e+00  0.0000000000000000e+00 0.0000000000000000e+00 0.0000000000000000e+00  0.0000000000000000e+00 0.0000000000000000e+00 0.0000000000000000e+00  0.0000000000000000e+00 0.0000000000000000e+00 0.0000000000000000e+00  0.0000000000000000e+00 0.0000000000000000e+00 0.0000000000000000e+00  0.0000000000000000e+00 0.0000000000000000e+00 0.0000000000000000e+00  0.0000000000000000e+00 0.0000000000000000e+00 0.0000000000000000e+00  0.0000000000000000e+00 0.0000000000000000e+00 0.0000000000000000e+00  0.0000000000000000e+00 0.0000000000000000e+00 0.0000000000000000e+00  0.0000000000000000e+00 0.0000000000000000e+00 0.0000000000000000e+00  0.0000000000000000e+00 0.0000000000000000e+00 0.0000000000000000e+00  0.0000000000000000e+00 0.0000000000000000e+00 0.0000000000000000e+00  0.0000000000000000e+00 0.0000000000000000e+00 0.0000000000000000e+00  0.0000000000000000e+00 0.0000000000000000e+00 0.0000000000000000e+00  0.0000000000000000e+00 0.0000000000000000e+00 0.0000000000000000e+00  0.0000000000000000e+00 0.0000000000000000e+00 0.0000000000000000e+00  0.0000000000000000e+00 0.0000000000000000e+00 0.0000000000000000e+00  0.0000000000000000e+00 0.0000000000000000e+00 0.0000000000000000e+00  0.0000000000000000e+00 0.0000000000000000e+00 0.0000000000000000e+00  0.0000000000000000e+00 0.0000000000000000e+00 0.0000000000000000e+00  0.0000000000000000e+00 0.0000000000000000e+00 0.0000000000000000e+00  0.0000000000000000e+00 0.0000000000000000e+00 0.0000000000000000e+00  0.0000000000000000e+00 0.0000000000000000e+00 0.0000000000000000e+00  0.0000000000000000e+00 0.0000000000000000e+00 0.0000000000000000e+00  0.0000000000000000e+00 0.0000000000000000e+00 0.0000000000000000e+00  0.0000000000000000e+00 0.0000000000000000e+00 0.0000000000000000e+00  0.0000000000000000e+00 0.0000000000000000e+00 0.0000000000000000e+00  0.0000000000000000e+00 0.0000000000000000e+00 0.0000000000000000e+00  0.0000000000000000e+00 0.0000000000000000e+00 0.0000000000000000e+00  0.0000000000000000e+00 0.0000000000000000e+00 0.0000000000000000e+00  0.0000000000000000e+00 0.0000000000000000e+00 0.0000000000000000e+00  0.0000000000000000e+00 0.0000000000000000e+00 0.0000000000000000e+00  0.0000000000000000e+00 0.0000000000000000e+00 0.0000000000000000e+00  0.0000000000000000e+00 0.0000000000000000e+00 0.0000000000000000e+00  0.0000000000000000e+00 0.0000000000000000e+00 0.0000000000000000e+00  0.0000000000000000e+00 0.0000000000000000e+00 0.0000000000000000e+00  0.0000000000000000e+00 0.0000000000000000e+00 0.0000000000000000e+00  0.0000000000000000e+00 0.0000000000000000e+00 0.0000000000000000e+00  0.0000000000000000e+00 0.0000000000000000e+00 0.0000000000000000e+00  0.0000000000000000e+00 0.0000000000000000e+00 0.0000000000000000e+00  0.0000000000000000e+00 0.0000000000000000e+00 0.0000000000000000e+00  0.0000000000000000e+00 0.0000000000000000e+00 0.0000000000000000e+00  0.0000000000000000e+00 0.0000000000000000e+00 0.0000000000000000e+00  0.0000000000000000e+00 0.0000000000000000e+00 0.0000000000000000e+00  0.0000000000000000e+00 0.0000000000000000e+00 0.0000000000000000e+00  0.0000000000000000e+00 0.0000000000000000e+00 0.0000000000000000e+00  0.0000000000000000e+00 0.0000000000000000e+00 0.0000000000000000e+00  0.0000000000000000e+00 0.0000000000000000e+00 0.0000000000000000e+00  0.0000000000000000e+00 0.0000000000000000e+00 0.0000000000000000e+00  0.0000000000000000e+00 0.0000000000000000e+00 0.0000000000000000e+00  0.0000000000000000e+00 0.0000000000000000e+00 0.0000000000000000e+00  0.0000000000000000e+00 0.0000000000000000e+00 0.0000000000000000e+00  0.0000000000000000e+00 0.0000000000000000e+00 0.0000000000000000e+00  0.0000000000000000e+00 0.0000000000000000e+00 0.0000000000000000e+00  0.0000000000000000e+00 0.0000000000000000e+00 0.0000000000000000e+00  0.0000000000000000e+00 0.0000000000000000e+00 0.0000000000000000e+00  0.0000000000000000e+00 0.0000000000000000e+00 0.0000000000000000e+00  0.0000000000000000e+00 0.0000000000000000e+00 0.0000000000000000e+00  0.0000000000000000e+00 0.0000000000000000e+00 0.0000000000000000e+00  0.0000000000000000e+00 0.0000000000000000e+00 0.0000000000000000e+00  0.0000000000000000e+00 0.0000000000000000e+00 0.0000000000000000e+00  0.0000000000000000e+00 0.0000000000000000e+00 0.0000000000000000e+00  0.0000000000000000e+00 0.0000000000000000e+00 0.0000000000000000e+00  0.0000000000000000e+00 0.0000000000000000e+00 0.0000000000000000e+00  0.0000000000000000e+00 0.0000000000000000e+00 0.0000000000000000e+00  0.0000000000000000e+00 0.0000000000000000e+00 0.0000000000000000e+00  0.0000000000000000e+00 0.0000000000000000e+00 0.0000000000000000e+00  0.0000000000000000e+00 0.0000000000000000e+00 0.0000000000000000e+00  0.0000000000000000e+00 0.0000000000000000e+00 0.0000000000000000e+00  0.0000000000000000e+00 0.0000000000000000e+00 0.0000000000000000e+00  0.0000000000000000e+00 0.0000000000000000e+00 0.0000000000000000e+00  0.0000000000000000e+00 0.0000000000000000e+00 0.0000000000000000e+00  0.0000000000000000e+00 0.0000000000000000e+00 0.0000000000000000e+00  0.0000000000000000e+00 0.0000000000000000e+00 0.0000000000000000e+00  0.0000000000000000e+00 0.0000000000000000e+00 0.0000000000000000e+00  0.0000000000000000e+00 0.0000000000000000e+00 0.0000000000000000e+00  0.0000000000000000e+00 0.0000000000000000e+00 0.0000000000000000e+00  0.0000000000000000e+00 0.0000000000000000e+00 0.0000000000000000e+00  0.0000000000000000e+00 3.5105762779394756e-01 0.0000000000000000e+00  0.0000000000000000e+00 6.2410244941239656e-01 0.0000000000000000e+00  0.0000000000000000e+00 8.1913446485702013e-01 0.0000000000000000e+00  0.0000000000000000e+00 9.3615367412477402e-01 0.0000000000000000e+00  0.0000000000000000e+00 9.3615367412595829e-01 0.0000000000000000e+00  0.0000000000000000e+00 8.1913446485972552e-01 0.0000000000000000e+00  0.0000000000000000e+00 6.2410244941543858e-01 0.0000000000000000e+00  0.0000000000000000e+00 3.5105762779529781e-01 0.0000000000000000e+00  0.0000000000000000e+00 0.0000000000000000e+00 0.0000000000000000e+00  0.0000000000000000e+00 0.0000000000000000e+00 0.0000000000000000e+00  0.0000000000000000e+00 0.0000000000000000e+00 0.0000000000000000e+00  0.0000000000000000e+00 0.0000000000000000e+00 0.0000000000000000e+00  0.0000000000000000e+00 0.0000000000000000e+00 0.0000000000000000e+00  0.0000000000000000e+00 0.0000000000000000e+00 0.0000000000000000e+00  0.0000000000000000e+00 0.0000000000000000e+00 0.0000000000000000e+00  0.0000000000000000e+00 0.0000000000000000e+00 0.0000000000000000e+00  0.0000000000000000e+00 0.0000000000000000e+00 0.0000000000000000e+00  0.0000000000000000e+00 0.0000000000000000e+00 0.0000000000000000e+00  0.0000000000000000e+00 0.0000000000000000e+00 0.0000000000000000e+00  0.0000000000000000e+00 0.0000000000000000e+00 0.0000000000000000e+00  0.0000000000000000e+00 0.0000000000000000e+00 0.0000000000000000e+00  0.0000000000000000e+00 0.0000000000000000e+00 0.0000000000000000e+00  0.0000000000000000e+00 0.0000000000000000e+00 0.0000000000000000e+00  0.0000000000000000e+00 0.0000000000000000e+00 0.0000000000000000e+00  0.0000000000000000e+00 0.0000000000000000e+00 0.0000000000000000e+00  0.0000000000000000e+00 0.0000000000000000e+00 0.0000000000000000e+00  0.0000000000000000e+00 0.0000000000000000e+00 0.0000000000000000e+00  0.0000000000000000e+00 0.0000000000000000e+00 0.0000000000000000e+00  0.0000000000000000e+00 0.0000000000000000e+00 0.0000000000000000e+00  1.0000000000000000e+00 0.0000000000000000e+00 0.0000000000000000e+00  1.0000000000000000e+00 0.0000000000000000e+00 0.0000000000000000e+00  1.0000000000000000e+00 0.0000000000000000e+00 0.0000000000000000e+00  1.0000000000000000e+00 0.0000000000000000e+00 0.0000000000000000e+00  1.0000000000000000e+00 0.0000000000000000e+00 0.0000000000000000e+00  1.0000000000000000e+00 0.0000000000000000e+00 0.0000000000000000e+00  1.0000000000000000e+00 0.0000000000000000e+00 0.0000000000000000e+00  1.0000000000000000e+00 0.0000000000000000e+00 0.0000000000000000e+00  1.0000000000000000e+00 0.0000000000000000e+00 0.0000000000000000e+00  1.0000000000000000e+00 0.0000000000000000e+00 0.0000000000000000e+00  1.0000000000000000e+00 0.0000000000000000e+00 0.0000000000000000e+00  1.0000000000000000e+00 0.0000000000000000e+00 0.0000000000000000e+00  1.0000000000000000e+00 0.0000000000000000e+00 0.0000000000000000e+00  1.0000000000000000e+00 0.0000000000000000e+00 0.0000000000000000e+00  1.0000000000000000e+00 0.0000000000000000e+00 0.0000000000000000e+00  1.0000000000000000e+00 0.0000000000000000e+00 0.0000000000000000e+00  1.0000000000000000e+00 0.0000000000000000e+00 0.0000000000000000e+00  1.0000000000000000e+00 0.0000000000000000e+00 0.0000000000000000e+00  1.0000000000000000e+00 0.0000000000000000e+00 0.0000000000000000e+00  1.0000000000000000e+00 0.0000000000000000e+00 0.0000000000000000e+00  1.0000000000000000e+00 0.0000000000000000e+00 0.0000000000000000e+00  1.0000000000000000e+00 0.0000000000000000e+00 0.0000000000000000e+00  1.0000000000000000e+00 0.0000000000000000e+00 0.0000000000000000e+00  1.0000000000000000e+00 0.0000000000000000e+00 0.0000000000000000e+00  1.0000000000000000e+00 0.0000000000000000e+00 0.0000000000000000e+00  1.0000000000000000e+00 0.0000000000000000e+00 0.0000000000000000e+00  1.0000000000000000e+00 0.0000000000000000e+00 0.0000000000000000e+00  1.0000000000000000e+00 0.0000000000000000e+00 0.0000000000000000e+00  1.0000000000000000e+00 0.0000000000000000e+00 0.0000000000000000e+00  1.0000000000000000e+00 0.0000000000000000e+00 0.0000000000000000e+00  1.0000000000000000e+00 0.0000000000000000e+00 0.0000000000000000e+00  1.0000000000000000e+00 0.0000000000000000e+00 0.0000000000000000e+00  1.0000000000000000e+00 0.0000000000000000e+00 0.0000000000000000e+00  1.0000000000000000e+00 0.0000000000000000e+00 0.0000000000000000e+00  1.0000000000000000e+00 0.0000000000000000e+00 0.0000000000000000e+00  1.0000000000000000e+00 0.0000000000000000e+00 0.0000000000000000e+00  1.0000000000000000e+00 0.0000000000000000e+00 0.0000000000000000e+00  1.0000000000000000e+00 0.0000000000000000e+00 0.0000000000000000e+00  1.0000000000000000e+00 0.0000000000000000e+00 0.0000000000000000e+00  1.0000000000000000e+00 0.0000000000000000e+00 0.0000000000000000e+00  1.0000000000000000e+00 0.0000000000000000e+00 0.0000000000000000e+00  1.0000000000000000e+00 0.0000000000000000e+00 0.0000000000000000e+00  1.0000000000000000e+00 0.0000000000000000e+00 0.0000000000000000e+00  1.0000000000000000e+00 0.0000000000000000e+00 0.0000000000000000e+00  1.0000000000000000e+00 0.0000000000000000e+00 0.0000000000000000e+00  1.0000000000000000e+00 0.0000000000000000e+00 0.0000000000000000e+00  1.0000000000000000e+00 0.0000000000000000e+00 0.0000000000000000e+00  1.0000000000000000e+00 0.0000000000000000e+00 0.0000000000000000e+00  1.0000000000000000e+00 0.0000000000000000e+00 0.0000000000000000e+00  1.0000000000000000e+00 0.0000000000000000e+00 0.0000000000000000e+00  1.0000000000000000e+00 0.0000000000000000e+00 0.0000000000000000e+00  1.0000000000000000e+00 0.0000000000000000e+00 0.0000000000000000e+00  1.0000000000000000e+00 0.0000000000000000e+00 0.0000000000000000e+00  1.0000000000000000e+00 0.0000000000000000e+00 0.0000000000000000e+00  1.0000000000000000e+00 0.0000000000000000e+00 0.0000000000000000e+00  1.0000000000000000e+00 0.0000000000000000e+00 0.0000000000000000e+00  1.0000000000000000e+00 0.0000000000000000e+00 0.0000000000000000e+00  1.0000000000000000e+00 0.0000000000000000e+00 0.0000000000000000e+00  1.0000000000000000e+00 0.0000000000000000e+00 0.0000000000000000e+00  1.0000000000000000e+00 0.0000000000000000e+00 0.0000000000000000e+00  1.0000000000000000e+00 0.0000000000000000e+00 0.0000000000000000e+00  1.0000000000000000e+00 0.0000000000000000e+00 0.0000000000000000e+00  1.0000000000000000e+00 0.0000000000000000e+00 0.0000000000000000e+00  1.0000000000000000e+00 0.0000000000000000e+00 0.0000000000000000e+00  1.0000000000000000e+00 0.0000000000000000e+00 0.0000000000000000e+00  1.0000000000000000e+00 0.0000000000000000e+00 0.0000000000000000e+00  1.0000000000000000e+00 0.0000000000000000e+00 0.0000000000000000e+00  1.0000000000000000e+00 0.0000000000000000e+00 0.0000000000000000e+00  1.0000000000000000e+00 0.0000000000000000e+00 0.0000000000000000e+00  1.0000000000000000e+00 0.0000000000000000e+00 0.0000000000000000e+00  1.0000000000000000e+00 0.0000000000000000e+00 0.0000000000000000e+00  1.0000000000000000e+00 0.0000000000000000e+00 0.0000000000000000e+00  1.0000000000000000e+00 0.0000000000000000e+00 0.0000000000000000e+00  1.0000000000000000e+00 0.0000000000000000e+00 0.0000000000000000e+00  1.0000000000000000e+00 0.0000000000000000e+00 0.0000000000000000e+00  1.0000000000000000e+00 0.0000000000000000e+00 0.0000000000000000e+00  1.0000000000000000e+00 0.0000000000000000e+00 0.0000000000000000e+00  1.0000000000000000e+00 0.0000000000000000e+00 0.0000000000000000e+00  1.0000000000000000e+00 0.0000000000000000e+00 0.0000000000000000e+00  1.0000000000000000e+00 0.0000000000000000e+00 0.0000000000000000e+00  1.0000000000000000e+00 0.0000000000000000e+00 0.0000000000000000e+00  1.0000000000000000e+00 0.0000000000000000e+00 0.0000000000000000e+00  1.0000000000000000e+00 0.0000000000000000e+00 0.0000000000000000e+00  1.0000000000000000e+00 0.0000000000000000e+00 0.0000000000000000e+00  1.0000000000000000e+00 0.0000000000000000e+00 0.0000000000000000e+00  1.0000000000000000e+00 0.0000000000000000e+00 0.0000000000000000e+00  1.0000000000000000e+00 0.0000000000000000e+00 0.0000000000000000e+00  1.0000000000000000e+00 0.0000000000000000e+00 0.0000000000000000e+00  1.0000000000000000e+00 0.0000000000000000e+00 0.0000000000000000e+00  1.0000000000000000e+00 0.0000000000000000e+00 0.0000000000000000e+00  1.0000000000000000e+00 0.0000000000000000e+00 0.0000000000000000e+00  1.0000000000000000e+00 0.0000000000000000e+00 0.0000000000000000e+00  1.0000000000000000e+00 0.0000000000000000e+00 0.0000000000000000e+00  1.0000000000000000e+00 0.0000000000000000e+00 0.0000000000000000e+00  1.0000000000000000e+00 0.0000000000000000e+00 0.0000000000000000e+00  1.0000000000000000e+00 0.0000000000000000e+00 0.0000000000000000e+00  1.0000000000000000e+00 0.0000000000000000e+00 0.0000000000000000e+00  1.0000000000000000e+00 0.0000000000000000e+00 0.0000000000000000e+00  1.0000000000000000e+00 0.0000000000000000e+00 0.0000000000000000e+00  1.0000000000000000e+00 0.0000000000000000e+00 0.0000000000000000e+00  1.0000000000000000e+00 0.0000000000000000e+00 0.0000000000000000e+00  1.0000000000000000e+00 0.0000000000000000e+00 0.0000000000000000e+00  1.0000000000000000e+00 0.0000000000000000e+00 0.0000000000000000e+00  1.0000000000000000e+00 0.0000000000000000e+00 0.0000000000000000e+00  1.0000000000000000e+00 0.0000000000000000e+00 0.0000000000000000e+00  1.0000000000000000e+00 0.0000000000000000e+00 0.0000000000000000e+00  1.0000000000000000e+00 0.0000000000000000e+00 0.0000000000000000e+00  1.0000000000000000e+00 0.0000000000000000e+00 0.0000000000000000e+00  1.0000000000000000e+00 0.0000000000000000e+00 0.0000000000000000e+00  1.0000000000000000e+00 0.0000000000000000e+00 0.0000000000000000e+00  1.0000000000000000e+00 0.0000000000000000e+00 0.0000000000000000e+00  1.0000000000000000e+00 0.0000000000000000e+00 0.0000000000000000e+00  1.0000000000000000e+00 0.0000000000000000e+00 0.0000000000000000e+00  1.0000000000000000e+00 0.0000000000000000e+00 0.0000000000000000e+00  1.0000000000000000e+00 0.0000000000000000e+00 0.0000000000000000e+00  1.0000000000000000e+00 0.0000000000000000e+00 0.0000000000000000e+00  1.0000000000000000e+00 0.0000000000000000e+00 0.0000000000000000e+00  1.0000000000000000e+00 0.0000000000000000e+00 0.0000000000000000e+00  1.0000000000000000e+00 0.0000000000000000e+00 0.0000000000000000e+00  1.0000000000000000e+00 0.0000000000000000e+00 0.0000000000000000e+00  1.0000000000000000e+00 0.0000000000000000e+00 0.0000000000000000e+00  1.0000000000000000e+00 0.0000000000000000e+00 0.0000000000000000e+00  1.0000000000000000e+00 0.0000000000000000e+00 0.0000000000000000e+00  1.0000000000000000e+00 0.0000000000000000e+00 0.0000000000000000e+00  1.0000000000000000e+00 0.0000000000000000e+00 0.0000000000000000e+00  1.0000000000000000e+00 0.0000000000000000e+00 0.0000000000000000e+00  1.0000000000000000e+00 0.0000000000000000e+00 0.0000000000000000e+00  1.0000000000000000e+00 0.0000000000000000e+00 0.0000000000000000e+00  1.0000000000000000e+00 0.0000000000000000e+00 0.0000000000000000e+00  1.0000000000000000e+00 0.0000000000000000e+00 0.0000000000000000e+00  1.0000000000000000e+00 0.0000000000000000e+00 0.0000000000000000e+00  1.0000000000000000e+00 0.0000000000000000e+00 0.0000000000000000e+00  1.0000000000000000e+00 0.0000000000000000e+00 0.0000000000000000e+00  1.0000000000000000e+00 0.0000000000000000e+00 0.0000000000000000e+00  1.0000000000000000e+00 0.0000000000000000e+00 0.0000000000000000e+00  1.0000000000000000e+00 0.0000000000000000e+00 0.0000000000000000e+00  1.0000000000000000e+00 0.0000000000000000e+00 0.0000000000000000e+00  1.0000000000000000e+00 0.0000000000000000e+00 0.000000000000000